<?xml version="1.0"?>
<VTKFile type="UnstructuredGrid"  version="0.1"  >
<UnstructuredGrid>
<Piece  NumberOfPoints="1826" NumberOfCells="3452">
<Points>
<DataArray  type="Float64"  NumberOfComponents="3"  format="ascii">0 0 0  0 2 0  1 2 0  1 0 0  0 1.5 0  0 0.5 0  0.5 1 0  0.03270156468211589 1.498929461614907 0  0.06526309623861858 1.495722430669976 0  0.0975451612174474 1.490392640159966 0  0.1294095228334242 1.482962913068929 0  0.1607197330395174 1.473465064615866 0  0.1913417166827912 1.461939766048435 0  0.2211443457134849 1.448436370468492 0  0.2500000006885261 1.433012701494699 0  0.2777851172638959 1.415734805647403 0  0.3043807153156688 1.396676669523079 0  0.3296729083861843 1.375919903006205 0  0.3535533914531431 1.353553389733404 0  0.3759199044829808 1.329672906702244 0  0.3966766707391871 1.304380713730806 0  0.4157348066966072 1.27778511569365 0  0.433012702319451 1.249999999260013 0  0.4484363711057253 1.221144344421304 0  0.4619397665153352 1.191341715555593 0  0.4734650649037118 1.160719732191551 0  0.4829629132698931 1.129409522083414 0  0.4903926402635492 1.097545160696701 0  0.4957224307066402 1.065263095960124 0  0.4989294616245774 1.032701564534581 0  0.4989294616162346 0.9672984353381336 0  0.4957224306699983 0.9347369037615536 0  0.490392640157931 0.9024548387723205 0  0.4829629130617794 0.8705904771398947 0  0.4734650646141984 0.8392802669555698 0  0.4619397660504483 0.8086582833220706 0  0.448436370519238 0.7788556543894176 0  0.4330127015668151 0.7499999994363833 0  0.4157348057257047 0.7222148828532915 0  0.3966766696008726 0.6956192847857141 0  0.3759199030985246 0.6703270917190861 0  0.3535533898678963 0.6464466086813487 0  0.3296729068542254 0.6240800956503032 0  0.3043807138804367 0.603323329375629 0  0.2777851159051034 0.5842651934446812 0  0.2499999993999702 0.5669872977613533 0  0.2211443445101545 0.551563628938091 0  0.1913417156397399 0.5380602335195195 0  0.1607197321786176 0.5265349350918977 0  0.1294095221659108 0.5170370867522118 0  0.09754516071933617 0.5096073597409532 0  0.06526309591941222 0.504277569288 0  0.03270156452471649 0.501070538374776 0  0 1.533333333333333 0  0 1.566666666666667 0  0 1.6 0  0 1.633333333333333 0  0 1.666666666666667 0  0 1.7 0  0 1.733333333333333 0  0 1.766666666666667 0  0 1.8 0  0 1.833333333333333 0  0 1.866666666666667 0  0 1.9 0  0 1.933333333333333 0  0 1.966666666666667 0  0.0333333333332695 2 0  0.06666666666653284 2 0  0.09999999999981467 2 0  0.1333333333330856 2 0  0.1666666666663217 2 0  0.1999999999995579 2 0  0.2333333333327941 2 0  0.2666666666660302 2 0  0.2999999999992664 2 0  0.3333333333325026 2 0  0.3666666666657388 2 0  0.399999999998975 2 0  0.4333333333322111 2 0  0.4666666666654473 2 0  0.4999999999986943 2 0  0.5333333333321045 2 0  0.5666666666655257 2 0  0.5999999999989467 2 0  0.6333333333323679 2 0  0.6666666666657889 2 0  0.6999999999992101 2 0  0.7333333333326312 2 0  0.7666666666660523 2 0  0.7999999999994734 2 0  0.8333333333328945 2 0  0.8666666666663155 2 0  0.8999999999997367 2 0  0.9333333333331578 2 0  0.966666666666579 2 0  1 1.966666666666528 0  1 1.933333333333056 0  1 1.899999999999584 0  1 1.866666666666111 0  1 1.833333333332639 0  1 1.799999999999167 0  1 1.766666666665695 0  1 1.733333333332408 0  1 1.699999999999306 0  1 1.666666666666204 0  1 1.633333333333102 0  1 1.6 0  1 1.566666666666898 0  1 1.533333333333796 0  1 1.500000000000693 0  1 1.466666666667591 0  1 1.433333333334489 0  1 1.400000000001387 0  1 1.366666666668285 0  1 1.333333333335183 0  1 1.300000000002081 0  1 1.266666666668979 0  1 1.233333333335876 0  1 1.200000000002774 0  1 1.166666666669672 0  1 1.13333333333657 0  1 1.100000000003468 0  1 1.066666666670365 0  1 1.033333333337263 0  1 1.000000000004118 0  1 0.9666666666706891 0  1 0.9333333333372169 0  1 0.9000000000037447 0  1 0.8666666666702729 0  1 0.8333333333368007 0  1 0.8000000000033289 0  1 0.7666666666698567 0  1 0.7333333333363847 0  1 0.7000000000029127 0  1 0.6666666666694405 0  1 0.6333333333359688 0  1 0.6000000000024965 0  1 0.5666666666690245 0  1 0.5333333333355526 0  1 0.5000000000020806 0  1 0.4666666666686086 0  1 0.4333333333351364 0  1 0.4000000000016646 0  1 0.3666666666681924 0  1 0.3333333333347204 0  1 0.3000000000012484 0  1 0.2666666666677764 0  1 0.2333333333343044 0  1 0.2000000000008322 0  1 0.1666666666673602 0  1 0.1333333333338882 0  1 0.1000000000004162 0  1 0.06666666666694421 0  1 0.03333333333347221 0  0.9666666666665279 0 0  0.9333333333330557 0 0  0.8999999999995836 0 0  0.866666666666204 0 0  0.8333333333331019 0 0  0.7999999999999998 0 0  0.7666666666668978 0 0  0.7333333333337957 0 0  0.7000000000006936 0 0  0.6666666666675913 0 0  0.6333333333344893 0 0  0.6000000000013871 0 0  0.5666666666682849 0 0  0.5333333333351827 0 0  0.5000000000020588 0 0  0.4666666666686085 0 0  0.4333333333351365 0 0  0.4000000000016645 0 0  0.3666666666681924 0 0  0.3333333333347203 0 0  0.3000000000012483 0 0  0.2666666666677763 0 0  0.2333333333343043 0 0  0.2000000000008323 0 0  0.1666666666673602 0 0  0.1333333333338882 0 0  0.1000000000004161 0 0  0.0666666666669441 0 0  0.0333333333334721 0 0  0 0.03333333333326642 0  0 0.06666666666654278 0  0 0.09999999999977896 0  0 0.1333333333330151 0  0 0.1666666666662513 0  0 0.1999999999994875 0  0 0.2333333333327237 0  0 0.2666666666660523 0  0 0.2999999999994734 0  0 0.3333333333328944 0  0 0.3666666666663156 0  0 0.3999999999997367 0  0 0.4333333333331578 0  0 0.4666666666665789 0  0.9720078389024296 0.3839053532097665 0  0.6177141197356127 1.970110789132252 0  0.360436615369053 0.6138605770590748 0  0.3861391408373005 1.360436568830364 0  0.6158539563312961 0.0300076275953698 0  0.9717935515957224 1.616666626512302 0  0.4503349544302452 1.969648275004318 0  0.9718821484537616 0.5513294621045447 0  0.4832230822237012 0.02880256548533156 0  0.9680550601811573 1.485415443148794 0  0.2771035102119055 1.448185256529387 0  0.4458774496998304 0.7223602678828543 0  0.4533241458832291 1.28144838916005 0  0.2781792205670676 0.5509616878269858 0  0.9717452944966014 1.350906751383707 0  0.3454106315521079 0.03238020337046239 0  0.3186117014980871 1.966955099533352 0  0.9711347960771812 0.6833536721060686 0  0.5036698364244112 1.152746013442923 0  0.1860122617942873 0.5084274565062816 0  0.4937463876732916 0.8149807178600084 0  0.1872152389157826 1.494039785070142 0  0.5210700744431078 0.912763447655603 0  0.5249336348655937 1.052632346936692 0  0.969371756054058 1.221014467412179 0  0.9687206903403364 0.8162768106783858 0  0.9711312122378151 1.74999642758501 0  0.9705006284784974 0.2541394162336532 0  0.0291671923730836 0.2492648760911458 0  0.9722863462155891 0.9844327334615537 0  0.02786892478776833 1.744200008206122 0  0.7488456770242237 0.02820125386543428 0  0.75232777106488 1.973426192888966 0  0.2140787413778278 0.02877618616141795 0  0.9711364571459239 1.083355903781838 0  0.216984895024036 1.97157990001614 0  0.02881023588753088 0.3499334554987509 0  0.0279167676421453 1.651094984405271 0  0.8499999999996527 0.028867513459281 0  0.9711287806663897 1.849988594518702 0  0.02851037092185282 1.850933693245081 0  0.02657828146929589 0.1506439340333313 0  0.8499999999996051 1.971132486540443 0  0.9722529173995789 0.1500005893012214 0  0.4068191891485564 0.6636920992272456 0  0.3350026989549613 1.408201967981129 0  0.1199116737775569 0.4857268767584794 0  0.1204187930047024 1.513873875942757 0  0.4805695625410147 1.217138773642565 0  0.5277851164936179 0.982722104234806 0  0.1198375501281139 1.973629410017188 0  0.1166666666671521 0.02886751345960137 0  0.9682521974352283 0.9108673130395177 0  0.9706868372895109 0.7493756625672479 0  0.9711467530947419 1.149989386991825 0  0.3826982123877192 1.974254620796589 0  0.9698162189036255 1.283001313879298 0  0.4166627969981546 0.02746179814648717 0  0.287263125130975 0.02679824962048408 0  0.5168380265331656 1.972445779011344 0  0.9725417522589047 0.4821905085222596 0  0.9711324865403987 0.6166666666692325 0  0.9698923354474425 0.3157971629507279 0  0.9713419917306575 1.416354851752129 0  0.9724305780841462 1.551562542796149 0  0.6838219518835869 0.02764660321905147 0  0.555344093665127 0.02781033190141805 0  0.9726632206974228 1.683336737424733 0  0.6829090121447416 1.970000184065787 0  0.9175918875373077 0.02597956753712739 0  0.9711325218105141 1.916666459441907 0  0.02886751345955729 0.4166666666664472 0  0.02677164657045219 1.582937909465663 0  0.02886751345948118 1.916666666666664 0  0.02865690373669425 0.08801859303660733 0  0.9195595366229958 1.970122770999841 0  0.9720021612961205 0.08333369630138165 0  0.05115120872992388 0.4690323303711446 0  0.052695006110651 1.52878761029546 0  0.05178002557941316 1.966395686274342 0  0.05140458396006113 0.02673655882533518 0  0.3616409345951801 1.38481780034642 0  0.3939272572701689 1.392574538781406 0  0.4182075756349645 1.368006386833962 0  0.4268527929559297 1.399757575186023 0  0.4493566380802702 1.375855723426924 0  0.4588451293568859 1.407100707228742 0  0.4812514503637216 1.383227559008879 0  0.4907967045583144 1.414610773974564 0  0.5132410737626683 1.390651514070395 0  0.5227761079756706 1.422127024422274 0  0.5001342124208727 1.446051934255461 0  0.5323120866844462 1.453586540944827 0  0.5098471362349208 1.477612267480775 0  0.541904695652436 1.485091594958284 0  0.5192034712688036 1.509197236374236 0  0.5514545151623 1.516634039703922 0  0.5287159014415561 1.540760833069327 0  0.5610288756892929 1.548195589099698 0  0.54524459984319 1.398124619988473 0  0.538459878267193 1.572283853892174 0  0.5706498099969766 1.57977205895816 0  0.583580463193986 1.524103723357003 0  0.5480511297529332 1.603845755198645 0  0.5801806458775162 1.611374409273161 0  0.5159060176415572 1.596362816749749 0  0.5255054924914881 1.627971368507998 0  0.4933296706540536 1.620464464316728 0  0.5028842050597395 1.652055251553627 0  0.4707269246391881 1.644567885612953 0  0.4802695885647797 1.676160325444348 0  0.4481078867217955 
[...]
<CellData  Tensors="u"> 
<DataArray  type="Float64"  Name="u"  NumberOfComponents="9" format="ascii">5.1435103168873712e+06 2.8576432344104227e+07 0.0000000000000000e+00 2.8576432344104227e+07 -1.6837828516576385e+08 0.0000000000000000e+00 0.0000000000000000e+00 0.0000000000000000e+00 0.0000000000000000e+00  -4.2134280116403252e+06 1.7891415901201628e+07 0.0000000000000000e+00 1.7891415901201628e+07 -9.1693082310596883e+07 0.0000000000000000e+00 0.0000000000000000e+00 0.0000000000000000e+00 0.0000000000000000e+00  -7.7865983225396264e+05 -7.2412280428390400e+06 0.0000000000000000e+00 -7.2412280428390400e+06 -9.1034636155423075e+07 0.0000000000000000e+00 0.0000000000000000e+00 0.0000000000000000e+00 0.0000000000000000e+00  5.3246463977082642e+06 -2.1700335939130420e+06 0.0000000000000000e+00 -2.1700335939130420e+06 1.0756225764853917e+07 0.0000000000000000e+00 0.0000000000000000e+00 0.0000000000000000e+00 0.0000000000000000e+00  4.5271541121807890e+06 -7.0855537270709465e+05 0.0000000000000000e+00 -7.0855537270709465e+05 -1.0120599594230069e+08 0.0000000000000000e+00 0.0000000000000000e+00 0.0000000000000000e+00 0.0000000000000000e+00  3.5887717741252482e+05 2.7169300314051386e+07 0.0000000000000000e+00 2.7169300314051386e+07 -1.7166834225289881e+08 0.0000000000000000e+00 0.0000000000000000e+00 0.0000000000000000e+00 0.0000000000000000e+00  4.2735177856316427e+06 1.6040506883706167e+05 0.0000000000000000e+00 1.6040506883706167e+05 -1.7432763126023364e+08 0.0000000000000000e+00 0.0000000000000000e+00 0.0000000000000000e+00 0.0000000000000000e+00  7.2105600209190965e+07 4.1475321083922707e+07 0.0000000000000000e+00 4.1475321083922707e+07 -2.9274593532072626e+07 0.0000000000000000e+00 0.0000000000000000e+00 0.0000000000000000e+00 0.0000000000000000e+00  -5.4852996781128980e+06 4.7759808576191245e+06 0.0000000000000000e+00 4.7759808576191245e+06 -9.9964584572395742e+07 0.0000000000000000e+00 0.0000000000000000e+00 0.0000000000000000e+00 0.0000000000000000e+00  5.9652085407532367e+05 -6.1175703475373553e+05 0.0000000000000000e+00 -6.1175703475373553e+05 -9.9733085876778468e+07 0.0000000000000000e+00 0.0000000000000000e+00 0.0000000000000000e+00 0.0000000000000000e+00  -3.5768874224524394e+07 8.0769492015038103e+07 0.0000000000000000e+00 8.0769492015038103e+07 -2.2124569499177450e+08 0.0000000000000000e+00 0.0000000000000000e+00 0.0000000000000000e+00 0.0000000000000000e+00  -7.6074924722489446e+07 6.6639328330506990e+06 0.0000000000000000e+00 6.6639328330506990e+06 -9.9618705445865855e+07 0.0000000000000000e+00 0.0000000000000000e+00 0.0000000000000000e+00 0.0000000000000000e+00  -1.3126995549128208e+07 7.8068499553196700e+06 0.0000000000000000e+00 7.8068499553196700e+06 -1.0599762816998523e+08 0.0000000000000000e+00 0.0000000000000000e+00 0.0000000000000000e+00 0.0000000000000000e+00  4.7921383713332877e+07 2.7231179535359517e+06 0.0000000000000000e+00 2.7231179535359517e+06 1.3193737868921496e+07 0.0000000000000000e+00 0.0000000000000000e+00 0.0000000000000000e+00 0.0000000000000000e+00  -2.5956471478330493e+06 -9.3229827293087132e+06 0.0000000000000000e+00 -9.3229827293087132e+06 -7.1176752493751571e+07 0.0000000000000000e+00 0.0000000000000000e+00 0.0000000000000000e+00 0.0000000000000000e+00  -1.3662674921141016e+08 1.1819665792418195e+07 0.0000000000000000e+00 1.1819665792418195e+07 -8.9103605073665485e+07 0.0000000000000000e+00 0.0000000000000000e+00 0.0000000000000000e+00 0.0000000000000000e+00  3.8720684047640637e+06 -1.9032914126616667e+06 0.0000000000000000e+00 -1.9032914126616667e+06 -1.0086035222247818e+08 0.0000000000000000e+00 0.0000000000000000e+00 0.0000000000000000e+00 0.0000000000000000e+00  8.0509122297219932e+05 1.9800852071182344e+06 0.0000000000000000e+00 1.9800852071182344e+06 -2.2150913556936303e+08 0.0000000000000000e+00 0.0000000000000000e+00 0.0000000000000000e+00 0.0000000000000000e+00  9.3210311282859921e+07 1.0555612042662524e+07 0.0000000000000000e+00 1.0555612042662524e+07 1.2304615442681246e+07 0.0000000000000000e+00 0.0000000000000000e+00 0.0000000000000000e+00 0.0000000000000000e+00  3.1019874921285361e+05 -7.2962643413890945e+05 0.0000000000000000e+00 -7.2962643413890945e+05 -1.0000600525478539e+08 0.0000000000000000e+00 0.0000000000000000e+00 0.0000000000000000e+00 0.0000000000000000e+00  -7.4057181766507756e+06 -2.6549451181238648e+06 0.0000000000000000e+00 -2.6549451181238648e+06 -2.4152496930671506e+07 0.0000000000000000e+00 0.0000000000000000e+00 0.0000000000000000e+00 0.0000000000000000e+00  1.9411689756874628e+06 -4.5524194871469913e+06 0.0000000000000000e+00 -4.5524194871469913e+06 -8.2313926470785350e+07 0.0000000000000000e+00 0.0000000000000000e+00 0.0000000000000000e+00 0.0000000000000000e+00  -1.1996881873523774e+07 -4.6030766901375214e+05 0.0000000000000000e+00 -4.6030766901375214e+05 5.6839449371524435e+06 0.0000000000000000e+00 0.0000000000000000e+00 0.0000000000000000e+00 0.0000000000000000e+00  2.9206121592787642e+07 -3.1299031428588028e+06 0.0000000000000000e+00 -3.1299031428588028e+06 -2.3193942406051904e+07 0.0000000000000000e+00 0.0000000000000000e+00 0.0000000000000000e+00 0.0000000000000000e+00  8.6430114799722582e+07 2.6710800499509767e+07 0.0000000000000000e+00 2.6710800499509767e+07 -1.7495543906608164e+07 0.0000000000000000e+00 0.0000000000000000e+00 0.0000000000000000e+00 0.0000000000000000e+00  -1.2112900273901043e+07 -5.7587853102614183e+05 0.0000000000000000e+00 -5.7587853102614183e+05 5.3619643683206476e+06 0.0000000000000000e+00 0.0000000000000000e+00 0.0000000000000000e+00 0.0000000000000000e+00  1.4537947004556323e+06 -1.8876820425533550e+06 0.0000000000000000e+00 -1.8876820425533550e+06 -9.9909701439031452e+07 0.0000000000000000e+00 0.0000000000000000e+00 0.0000000000000000e+00 0.0000000000000000e+00  -8.8606020528244913e+07 2.3393871081706479e+07 0.0000000000000000e+00 2.3393871081706479e+07 -9.6473232407233790e+07 0.0000000000000000e+00 0.0000000000000000e+00 0.0000000000000000e+00 0.0000000000000000e+00  3.5892225194166012e+07 -2.8245144921502755e+06 0.0000000000000000e+00 -2.8245144921502755e+06 -4.3344895397276632e+07 0.0000000000000000e+00 0.0000000000000000e+00 0.0000000000000000e+00 0.0000000000000000e+00  -2.5975223835340429e+07 -7.1543658574181683e+06 0.0000000000000000e+00 -7.1543658574181683e+06 -3.1167139552248383e+08 0.0000000000000000e+00 0.0000000000000000e+00 0.0000000000000000e+00 0.0000000000000000e+00  4.9320775480754867e+07 3.9431641278498314e+07 0.0000000000000000e+00 3.9431641278498314e+07 -2.5379887821689758e+07 0.0000000000000000e+00 0.0000000000000000e+00 0.0000000000000000e+00 0.0000000000000000e+00  3.6860871546011157e+06 -3.2181477378862705e+06 0.0000000000000000e+00 -3.2181477378862705e+06 -9.3790030683997169e+07 0.0000000000000000e+00 0.0000000000000000e+00 0.0000000000000000e+00 0.0000000000000000e+00  2.4068685225859955e+06 2.2758133089858135e+06 0.0000000000000000e+00 2.2758133089858135e+06 -1.7658204509247041e+08 0.0000000000000000e+00 0.0000000000000000e+00 0.0000000000000000e+00 0.0000000000000000e+00  -4.2122806169263143e+06 -2.1860243753144685e+06 0.0000000000000000e+00 -2.1860243753144685e+06 -4.7211827300162822e+07 0.0000000000000000e+00 0.0000000000000000e+00 0.0000000000000000e+00 0.0000000000000000e+00  -2.5625634594214316e+06 -1.7662895976182201e+06 0.0000000000000000e+00 -1.7662895976182201e+06 -3.8631595811207995e+07 0.0000000000000000e+00 0.0000000000000000e+00 0.0000000000000000e+00 0.0000000000000000e+00  -1.1906996733896246e+07 -3.9659709244314057e+05 0.0000000000000000e+00 -3.9659709244314057e+05 1.3588845722000357e+06 0.0000000000000000e+00 0.0000000000000000e+00 0.0000000000000000e+00 0.0000000000000000e+00  -1.4157480490976406e+07 -8.9437157559883053e+04 0.0000000000000000e+00 -8.9437157559883053e+04 -3.2772028951147598e+08 0.0000000000000000e+00 0.0000000000000000e+00 0.0000000000000000e+00 0.0000000000000000e+00  -6.9635025598377556e+07 1.0076373227379993e+08 0.0000000000000000e+00 1.0076373227379993e+08 -2.4808420483504528e+08 0.0000000000000000e+00 0.0000000000000000e+00 0.0000000000000000e+00 0.0000000000000000e+00  2.4998176335666869e+06 -7.8830529323345306e+05 0.0000000000000000e+00 -7.8830529323345306e+05 8.9402122435065974e+06 0.0000000000000000e+00 0.0000000000000000e+00 0.0000000000000000e+00 0.0000000000000000e+00  -2.0716447329488344e+07 -4.4590659381071247e+07 0.0000000000000000e+00 -4.4590659381071247e+07 -2.0397079155598968e+08 0.0000000000000000e+00 0.0000000000000000e+00 0.0000000000000000e+00 0.0000000000000000e+00  9.1720059677354604e+07 1.3626902052967444e+07 0.0000000000000000e+00 1.3626902052967444e+07 1.2730741832858391e+07 0.0000000000000000e+00 0.0000000000000000e+00 0.0000000000000000e+00 0.0000000000000000e+00  -4.8318583840809748e+07 3.7039445420338206e+07 0.0000000000000000e+00 3.7039445420338206e+07 -3.6704473718448675e+08 0.0000000000000000e+00 0.0000000000000000e+00 0.0000000000000000e+00 0.0000000000000000e+00  -3.5036279515660927e+06 1.0167003313234914e+07 0.0000000000000000e+00 1.0167003313234914e+07 -8.5586270383345366e+07 0.0000000000000000e+00 0.0000000000000000e+00 0.0000000000000000e+00 0.0000000000000000e+00  -1.9052175231699476e+08 4.7057580188293559e+06 0.0000000000000000e+00 4.7057580188293559e+06 -9.8844572696599394e+07 0.0000000000000000e+00 0.0000000000000000e+00 0.0000000000000000e+00 0.0000000000000000e+00  -3.6334087552997351e+07 2.0098546681642220e+06 0.0000000000000000e+00 2.0098546681642220e+06 -4.0155333545669627e+08 0.0000000000000000e+00 0.0000000000000000e+00 0.0000000000000000e+00 0.0000000000000000e+00  -1.0645215493452556e+08 1.7885676007457547e+07 0.0000000000000000e+00 1.7885676007457547e+07 -1.0499980666223660e+08 0.0000000000000000e+00 0.0000000000000000e+00 0.0000000000000000e+00 0.0000000000000000e+00  -4.2466247727696002e+06 -3.3496663249111202e+07 0.0000000000000000e+00 -3.3496663249111202e+07 -1.8796838829363847e+08 0.0000000000000000e+00 0.0000000000000000e+00 0.0000000000000000e+00 0.0000000000000000e+00  2.8787438519746517e+06 -2.0193008903163344e+07 0.0000000000000000e+00 -2.0193008903163344e+07 -1.6836613767313564e+08 0.0000000000000000e+00 0.0000000000000000e+00 0.0000000000000000e+00 0.0000000000000000e+00  1.8114369223707996e+07 -1.6963936223176479e+07 0.0000000000000000e+00 -1.6963936223176479e+07 -1.3426059953831777e+08 0.0000000000000000e+00 0.0000000000000000e+00 0.0000000000000000e+00 0.0000000000000000e+00  4.4835297693886235e+06 -8.0587834620027419e+05 0.0000000000000000e+00 -8.0587834620027419e+05 -1.2832311796143211e+08 0.0000000000000000e+00 0.0000000000000000e+00 0.0000000000000000e+00 0.0000000000000000e+00  1.2964988075280783e+08 7.3471005464466987e+06 0.0000000000000000e+00 7.3471005464466987e+06 1.8690528245524019e+06 0.0000000000000000e+00 0.0000000000000000e+00 0.0000000000000000e+00 0.0000000000000000e+00  6.8484852915551558e+07 9.7288271028784122e+06 0.0000000000000000e+00 9.7288271028784122e+06 4.3745014152271710e+06 0.0000000000000000e+00 0.0000000000000000e+00 0.0000000000000000e+00 0.0000000000000000e+00  6.5076528747729808e+07 1.4266263912070734e+07 0.0000000000000000e+00 1.4266263912070734e+07 8.9328146516860109e+06 0.0000000000000000e+00 0.0000000000000000e+00 0.0000000000000000e+00 0.0000000000000000e+00  -1.6328758915941253e+08 9.1466044662514552e+06 0.0000000000000000e+00 9.1466044662514552e+06 -9.4658292508875102e+07 0.0000000000000000e+00 0.0000000000000000e+00 0.0000000000000000e+00 0.0000000000000000e+00  -4.9284178499770880e+07 1.2738094698724559e+07 0.0000000000000000e+00 1.2738094698724559e+07 -5.4744946042072102e+07 0.0000000000000000e+00 0.0000000000000000e+00 0.0000000000000000e+00 0.0000000000000000e+00  1.7227835413716733e+06 5.4910974076076206e+06 0.0000000000000000e+00 5.4910974076076206e+06 -2.1789538411667639e+08 0.0000000000000000e+00 0.0000000000000000e+00 0.0000000000000000e+00 0.0000000000000000e+00  1.1301779785832092e+06 -4.4655511518535474e+06 0.0000000000000000e+00 -4.4655511518535474e+06 -5.8521202177565448e+07 0.0000000000000000e+00 0.0000000000000000e+00 0.0000000000000000e+00 0.0000000000000000e+00  1.1801255608534589e+06 1.7971937604231600e+07 0.0000000000000000e+00 1.7971937604231600e+07 -1.8407542559793514e+08 0.0000000000000000e+00 0.0000000000000000e+00 0.0000000000000000e+00 0.0000000000000000e+00  -3.4309158940012991e+07 5.4647993453281075e+07 0.0000000000000000e+00 5.4647993453281075e+07 -2.7501693450794232e+08 0.0000000000000000e+00 0.0000000000000000e+00 0.0000000000000000e+00 0.0000000000000000e+00  -1.2352577771918559e+08 6.0242058609211212e+06 0.0000000000000000e+00 6.0242058609211212e+06 -8.6294157473480031e+07 0.0000000000000000e+00 0.0000000000000000e+00 0.0000000000000000e+00 0.0000000000000000e+00  3.4238991593460739e+05 -3.8202569585959328e+05 0.0000000000000000e+00 -3.8202569585959328e+05 -1.0112611594793350e+08 0.0000000000000000e+00 0.0000000000000000e+00 0.0000000000000000e+00 0.0000000000000000e+00  -1.1885560018021688e+07 -6.8628689714472089e+06 0.0000000000000000e+00 -6.8628689714472089e+06 -2.6368477612823480e+08 0.0000000000000000e+00 0.0000000000000000e+00 0.0000000000000000e+00 0.0000000000000000e+00  3.6849093988076948e+07 -7.4298465899629286e+06 0.0000000000000000e+00 -7.4298465899629286e+06 -3.3985746521136291e+07 0.0000000000000000e+00 0.0000000000000000e+00 0.0000000000000000e+00 0.0000000000000000e+00  1.8328336779260063e+08 -7.1076296701698061e+06 0.0000000000000000e+00 -7.1076296701698061e+06 1.3967744035441168e+07 0.0000000000000000e+00 0.0000000000000000e+00 0.0000000000000000e+00 0.0000000000000000e+00  -7.0444674430928640e+06 2.4207630291901790e+06 0.0000000000000000e+00 2.4207630291901790e+06 -9.7333609043347299e+07 0.0000000000000000e+00 0.0000000000000000e+00 0.0000000000000000e+00 0.0000000000000000e+00  -1.8051613977827884e+07 8.5331108047531284e+06 0.0000000000000000e+00 8.5331108047531284e+06 -1.0090220976122434e+08 0.0000000000000000e+00 0.0000000000000000e+00 0.0000000000000000e+00 0.0000000000000000e+00  -3.1717577363355309e+06 1.0205499623108974e+07 0.0000000000000000e+00 1.0205499623108974e+07 -6.9681431991091266e+07 0.0000000000000000e+00 0.0000000000000000e+00 0.0000000000000000e+00 0.0000000000000000e+00  3.4838360466313139e+06 2.7187709053750183e+06 0.0000000000000000e+00 2.7187709053750183e+06 -1.6784316119762877e+08 0.0000000000000000e+00 0.0000000000000000e+00 0.0000000000000000e+00 0.0000000000000000e+00  4.1580435358666815e+05 1.8762616727408137e+07 0.0000000000000000e+00 1.8762616727408137e+07 -3.7536325032318972e+07 0.0000000000000000e+00 0.0000000000000000e+00 0.0000000000000000e+00 0.0000000000000000e+00  -1.1623272810074927e+07 -1.0702184807665013e+06 0.0000000000000000e+00 -1.0702184807665013e+06 3.0267581785595403e+06 0.0000000000000000e+00 0.0000000000000000e+00 0.0000000000000000e+00 0.0000000000000000e+00  -8.3554715927914992e+07 7.6365850864527039e+06 0.0000000000000000e+00 7.6365850864527039e+06 -1.0115195212998095e+08 0.0000000000000000e+00 0.0000000000000000e+00 0.0000000000000000e+00 0.0000000000000000e+00  -6.2171373704692796e+07 7.3216629175315574e+06 0.0000000000000000e+00 7.3216629175315574e+06 -9.9608572526435077e+07 0.0000000000000000e+00 0.0000000000000000e+00 0.0000000000000000e+00 0.0000000000000000e+00  -1.1012723826836772e+07 6.4376600505352058e+06 0.0000000000000000e+00 6.4376600505352058e+06 -1.0311017036286446e+08 0.0000000000000000e+00 0.0000000000000000e+00 0.0000000000000000e+00 0.0000000000000000e+00  3.2832638520273231e+06 8.3669658140049214e+06 0.0000000000000000e+00 8.3669658140049214e+06 -7.7635356487345651e+07 0.0000000000000000e+00 0.0000000000000000e+00 0.0000000000000000e+00 0.0000000000000000e+00  3.7628061695149489e+07 -4.6916756149337301e+06 0.0000000000000000e+00 -4.6916756149337301e+06 -4.8988100505229451e+07 0.0000000000000000e+00 0.0000000000000000e+00 0.0000000000000000e+00 0.0000000000000000e+00  -9.1431194383006673e+06 -1.1726381617198281e+06 0.0000000000000000e+00 -1.1726381617198281e+06 7.4511369045137232e+06 0.0000000000000000e+00 0.0000000000000000e+00 0.0000000000000000e+00 0.0000000000000000e+00  -4.9967281619564258e+06 4.1550544296571799e+06 0.0000000000000000e+00 4.1550544296571799e+06 -1.0194076905785267e+08 0.0000000000000000e+00 0.0000000000000000e+00 0.0000000000000000e+00 0.0000000000000000e+00  4.9176825218560845e+06 -2.3163811207309318e+04 0.0000000000000000e+00 -2.3163811207309318e+04 -1.1917605250890298e+08 0.0000000000000000e+00 0.0000000000000000e+00 0.0000000000000000e+00 0.0000000000000000e+00  1.2305030235556366e+06 -1.3544420735006614e+05 0.0000000000000000e+00 -1.3544420735006614e+05 -1.0026685582524763e+08 0.0000000000000000e+00 0.0000000000000000e+00 0.0000000000000000e+00 0.0000000000000000e+00  8.2679895933690891e+06 -2.4444410535133276e+07 0.0000000000000000e+00 -2.4444410535133276e+07 -7.9645283037142321e+07 0.0000000000000000e+00 0.0000000000000000e+00 0.0000000000000000e+00 0.0000000000000000e+00  6.9517677896030962e+07 5.7878794654887272e+06 0.0000000000000000e+00 5.7878794654887272e+06 6.0976335305773439e+06 0.0000000000000000e+00 0.0000000000000000e+00 0.0000000000000000e+00 0.0000000000000000e+00  5.5459607584807858e+07 -1.3578941622892057e+05 0.0000000000000000e+00 -1.3578941622892057e+05 1.2713409428584486e+07 0.0000000000000000e+00 0.0000000000000000e+00 0.0000000000000000e+00 0.0000000000000000e+00  9.4357640928852223e+06 5.7157618950814791e+07 0.0000000000000000e+00 5.7157618950814791e+07 -1.1567299599002527e+08 0.0000000000000000e+00 0.0000000000000000e+00 0.0000000000000000e+00 0.0000000000000000e+00  -4.8349995178955220e+07 1.8130121350589182e+07 0.0000000000000000e+00 1.8130121350589182e+07 -9.7943649231611222e+07 0.0000000000000000e+00 0.0000000000000000e+00 0.0000000000000000e+00 0.0000000000000000e+00  8.7657360397656173e+07 1.5075562051150180e+07 0.0000000000000000e+00 1.5075562051150180e+07 1.2334106938544568e+07 0.0000000000000000e+00 0.0000000000000000e+00 0.0000000000000000e+00 0.0000000000000000e+00  6.4961856280367821e+05 -4.2555980399397195e+04 0.0000000000000000e+00 -4.2555980399397195e+04 -2.0988948035670793e+08 0.0000000000000000e+00 0.0000000000000000e+00 0.0000000000000000e+00 0.0000000000000000e+00  -1.7566026570212148e+07 8.7669259796230309e+06 0.0000000000000000e+00 8.7669259796230309e+06 -1.0216763242827848e+08 0.0000000000000000e+00 0.0000000000000000e+00 0.0000000000000000e+00 0.0000000000000000e+00  -1.5484321246345735e+08 1.6390540617987085e+07 0.0000000000000000e+00 1.6390540617987085e+07 -9.7444016662691683e+07 0.0000000000000000e+00 0.0000000000000000e+00 0.0000000000000000e+00 0.0000000000000000e+00  -7.2565532241875688e+06 -1.1806449386030494e+06 0.0000000000000000e+00 -1.1806449386030494e+06 -1.7338317883701518e+07 0.0000000000000000e+00 0.0000000000000000e+00 0.0000000000000000e+00 0.0000000000000000e+00  1.4307630319572315e+06 1.3136782512050251e+07 0.0000000000000000e+00 1.3136782512050251e+07 -8.7030544550811201e+07 0.0000000000000000e+00 0.0000000000000000e+00 0.0000000000000000e+00 0.0000000000000000e+00  -6.8615720550408676e+07 1.8375538905488711e+07 0.0000000000000000e+00 1.8375538905488711e+07 -1.0458466080099693e+08 0.0000000000000000e+00 0.0000000000000000e+00 0.0000000000000000e+00 0.0000000000000000e+00  1.0312545805030115e+08 6.6865105671492890e+06 0.0000000000000000e+00 6.6865105671492890e+06 -6.6392065047935955e+06 0.0000000000000000e+00 0.0000000000000000e+00 0.0000000000000000e+00 0.0000000000000000e+00  -1.0798930327899450e+07 -5.0116937301949388e+05 0.0000000000000000e+00 -5.0116937301949388e+05 5.6871282172655249e+06 0.0000000000000000e+00 0.0000000000000000e+00 0.0000000000000000e+00 0.0000000000000000e+00  7.7280170957790678e+06 -4.3937988652555901e+05 0.0000000000000000e+00 -4.3937988652555901e+05 1.0889628612668365e+07 0.0000000000000000e+00 0.0000000000000000e+00 0.0000000000000000e+00 0.0000000000000000e+00  2.3148781791303977e+06 2.4658299299835537e+07 0.0000000000000000e+00 2.4658299299835537e+07 -1.4450042470737040e+08 0.0000000000000000e+00 0.00