<?xml version="1.0"?>
<VTKFile type="UnstructuredGrid"  version="0.1"  >
<UnstructuredGrid>
<Piece  NumberOfPoints="1826" NumberOfCells="3452">
<Points>
<DataArray  type="Float64"  NumberOfComponents="3"  format="ascii">0 0 0  0 2 0  1 2 0  1 0 0  0 1.5 0  0 0.5 0  0.5 1 0  0.03270156468211589 1.498929461614907 0  0.06526309623861858 1.495722430669976 0  0.0975451612174474 1.490392640159966 0  0.1294095228334242 1.482962913068929 0  0.1607197330395174 1.473465064615866 0  0.1913417166827912 1.461939766048435 0  0.2211443457134849 1.448436370468492 0  0.2500000006885261 1.433012701494699 0  0.2777851172638959 1.415734805647403 0  0.3043807153156688 1.396676669523079 0  0.3296729083861843 1.375919903006205 0  0.3535533914531431 1.353553389733404 0  0.3759199044829808 1.329672906702244 0  0.3966766707391871 1.304380713730806 0  0.4157348066966072 1.27778511569365 0  0.433012702319451 1.249999999260013 0  0.4484363711057253 1.221144344421304 0  0.4619397665153352 1.191341715555593 0  0.4734650649037118 1.160719732191551 0  0.4829629132698931 1.129409522083414 0  0.4903926402635492 1.097545160696701 0  0.4957224307066402 1.065263095960124 0  0.4989294616245774 1.032701564534581 0  0.4989294616162346 0.9672984353381336 0  0.4957224306699983 0.9347369037615536 0  0.490392640157931 0.9024548387723205 0  0.4829629130617794 0.8705904771398947 0  0.4734650646141984 0.8392802669555698 0  0.4619397660504483 0.8086582833220706 0  0.448436370519238 0.7788556543894176 0  0.4330127015668151 0.7499999994363833 0  0.4157348057257047 0.7222148828532915 0  0.3966766696008726 0.6956192847857141 0  0.3759199030985246 0.6703270917190861 0  0.3535533898678963 0.6464466086813487 0  0.3296729068542254 0.6240800956503032 0  0.3043807138804367 0.603323329375629 0  0.2777851159051034 0.5842651934446812 0  0.2499999993999702 0.5669872977613533 0  0.2211443445101545 0.551563628938091 0  0.1913417156397399 0.5380602335195195 0  0.1607197321786176 0.5265349350918977 0  0.1294095221659108 0.5170370867522118 0  0.09754516071933617 0.5096073597409532 0  0.06526309591941222 0.504277569288 0  0.03270156452471649 0.501070538374776 0  0 1.533333333333333 0  0 1.566666666666667 0  0 1.6 0  0 1.633333333333333 0  0 1.666666666666667 0  0 1.7 0  0 1.733333333333333 0  0 1.766666666666667 0  0 1.8 0  0 1.833333333333333 0  0 1.866666666666667 0  0 1.9 0  0 1.933333333333333 0  0 1.966666666666667 0  0.0333333333332695 2 0  0.06666666666653284 2 0  0.09999999999981467 2 0  0.1333333333330856 2 0  0.1666666666663217 2 0  0.1999999999995579 2 0  0.2333333333327941 2 0  0.2666666666660302 2 0  0.2999999999992664 2 0  0.3333333333325026 2 0  0.3666666666657388 2 0  0.399999999998975 2 0  0.4333333333322111 2 0  0.4666666666654473 2 0  0.4999999999986943 2 0  0.5333333333321045 2 0  0.5666666666655257 2 0  0.5999999999989467 2 0  0.6333333333323679 2 0  0.6666666666657889 2 0  0.6999999999992101 2 0  0.7333333333326312 2 0  0.7666666666660523 2 0  0.7999999999994734 2 0  0.8333333333328945 2 0  0.8666666666663155 2 0  0.8999999999997367 2 0  0.9333333333331578 2 0  0.966666666666579 2 0  1 1.966666666666528 0  1 1.933333333333056 0  1 1.899999999999584 0  1 1.866666666666111 0  1 1.833333333332639 0  1 1.799999999999167 0  1 1.766666666665695 0  1 1.733333333332408 0  1 1.699999999999306 0  1 1.666666666666204 0  1 1.633333333333102 0  1 1.6 0  1 1.566666666666898 0  1 1.533333333333796 0  1 1.500000000000693 0  1 1.466666666667591 0  1 1.433333333334489 0  1 1.400000000001387 0  1 1.366666666668285 0  1 1.333333333335183 0  1 1.300000000002081 0  1 1.266666666668979 0  1 1.233333333335876 0  1 1.200000000002774 0  1 1.166666666669672 0  1 1.13333333333657 0  1 1.100000000003468 0  1 1.066666666670365 0  1 1.033333333337263 0  1 1.000000000004118 0  1 0.9666666666706891 0  1 0.9333333333372169 0  1 0.9000000000037447 0  1 0.8666666666702729 0  1 0.8333333333368007 0  1 0.8000000000033289 0  1 0.7666666666698567 0  1 0.7333333333363847 0  1 0.7000000000029127 0  1 0.6666666666694405 0  1 0.6333333333359688 0  1 0.6000000000024965 0  1 0.5666666666690245 0  1 0.5333333333355526 0  1 0.5000000000020806 0  1 0.4666666666686086 0  1 0.4333333333351364 0  1 0.4000000000016646 0  1 0.3666666666681924 0  1 0.3333333333347204 0  1 0.3000000000012484 0  1 0.2666666666677764 0  1 0.2333333333343044 0  1 0.2000000000008322 0  1 0.1666666666673602 0  1 0.1333333333338882 0  1 0.1000000000004162 0  1 0.06666666666694421 0  1 0.03333333333347221 0  0.9666666666665279 0 0  0.9333333333330557 0 0  0.8999999999995836 0 0  0.866666666666204 0 0  0.8333333333331019 0 0  0.7999999999999998 0 0  0.7666666666668978 0 0  0.7333333333337957 0 0  0.7000000000006936 0 0  0.6666666666675913 0 0  0.6333333333344893 0 0  0.6000000000013871 0 0  0.5666666666682849 0 0  0.5333333333351827 0 0  0.5000000000020588 0 0  0.4666666666686085 0 0  0.4333333333351365 0 0  0.4000000000016645 0 0  0.3666666666681924 0 0  0.3333333333347203 0 0  0.3000000000012483 0 0  0.2666666666677763 0 0  0.2333333333343043 0 0  0.2000000000008323 0 0  0.1666666666673602 0 0  0.1333333333338882 0 0  0.1000000000004161 0 0  0.0666666666669441 0 0  0.0333333333334721 0 0  0 0.03333333333326642 0  0 0.06666666666654278 0  0 0.09999999999977896 0  0 0.1333333333330151 0  0 0.1666666666662513 0  0 0.1999999999994875 0  0 0.2333333333327237 0  0 0.2666666666660523 0  0 0.2999999999994734 0  0 0.3333333333328944 0  0 0.3666666666663156 0  0 0.3999999999997367 0  0 0.4333333333331578 0  0 0.4666666666665789 0  0.9720078389024296 0.3839053532097665 0  0.6177141197356127 1.970110789132252 0  0.360436615369053 0.6138605770590748 0  0.3861391408373005 1.360436568830364 0  0.6158539563312961 0.0300076275953698 0  0.9717935515957224 1.616666626512302 0  0.4503349544302452 1.969648275004318 0  0.9718821484537616 0.5513294621045447 0  0.4832230822237012 0.02880256548533156 0  0.9680550601811573 1.485415443148794 0  0.2771035102119055 1.448185256529387 0  0.4458774496998304 0.7223602678828543 0  0.4533241458832291 1.28144838916005 0  0.2781792205670676 0.5509616878269858 0  0.9717452944966014 1.350906751383707 0  0.3454106315521079 0.03238020337046239 0  0.3186117014980871 1.966955099533352 0  0.9711347960771812 0.6833536721060686 0  0.5036698364244112 1.152746013442923 0  0.1860122617942873 0.5084274565062816 0  0.4937463876732916 0.8149807178600084 0  0.1872152389157826 1.494039785070142 0  0.5210700744431078 0.912763447655603 0  0.5249336348655937 1.052632346936692 0  0.969371756054058 1.221014467412179 0  0.9687206903403364 0.8162768106783858 0  0.9711312122378151 1.74999642758501 0  0.9705006284784974 0.2541394162336532 0  0.0291671923730836 0.2492648760911458 0  0.9722863462155891 0.9844327334615537 0  0.02786892478776833 1.744200008206122 0  0.7488456770242237 0.02820125386543428 0  0.75232777106488 1.973426192888966 0  0.2140787413778278 0.02877618616141795 0  0.9711364571459239 1.083355903781838 0  0.216984895024036 1.97157990001614 0  0.02881023588753088 0.3499334554987509 0  0.0279167676421453 1.651094984405271 0  0.8499999999996527 0.028867513459281 0  0.9711287806663897 1.849988594518702 0  0.02851037092185282 1.850933693245081 0  0.02657828146929589 0.1506439340333313 0  0.8499999999996051 1.971132486540443 0  0.9722529173995789 0.1500005893012214 0  0.4068191891485564 0.6636920992272456 0  0.3350026989549613 1.408201967981129 0  0.1199116737775569 0.4857268767584794 0  0.1204187930047024 1.513873875942757 0  0.4805695625410147 1.217138773642565 0  0.5277851164936179 0.982722104234806 0  0.1198375501281139 1.973629410017188 0  0.1166666666671521 0.02886751345960137 0  0.9682521974352283 0.9108673130395177 0  0.9706868372895109 0.7493756625672479 0  0.9711467530947419 1.149989386991825 0  0.3826982123877192 1.974254620796589 0  0.9698162189036255 1.283001313879298 0  0.4166627969981546 0.02746179814648717 0  0.287263125130975 0.02679824962048408 0  0.5168380265331656 1.972445779011344 0  0.9725417522589047 0.4821905085222596 0  0.9711324865403987 0.6166666666692325 0  0.9698923354474425 0.3157971629507279 0  0.9713419917306575 1.416354851752129 0  0.9724305780841462 1.551562542796149 0  0.6838219518835869 0.02764660321905147 0  0.555344093665127 0.02781033190141805 0  0.9726632206974228 1.683336737424733 0  0.6829090121447416 1.970000184065787 0  0.9175918875373077 0.02597956753712739 0  0.9711325218105141 1.916666459441907 0  0.02886751345955729 0.4166666666664472 0  0.02677164657045219 1.582937909465663 0  0.02886751345948118 1.916666666666664 0  0.02865690373669425 0.08801859303660733 0  0.9195595366229958 1.970122770999841 0  0.9720021612961205 0.08333369630138165 0  0.05115120872992388 0.4690323303711446 0  0.052695006110651 1.52878761029546 0  0.05178002557941316 1.966395686274342 0  0.05140458396006113 0.02673655882533518 0  0.3616409345951801 1.38481780034642 0  0.3939272572701689 1.392574538781406 0  0.4182075756349645 1.368006386833962 0  0.4268527929559297 1.399757575186023 0  0.4493566380802702 1.375855723426924 0  0.4588451293568859 1.407100707228742 0  0.4812514503637216 1.383227559008879 0  0.4907967045583144 1.414610773974564 0  0.5132410737626683 1.390651514070395 0  0.5227761079756706 1.422127024422274 0  0.5001342124208727 1.446051934255461 0  0.5323120866844462 1.453586540944827 0  0.5098471362349208 1.477612267480775 0  0.541904695652436 1.485091594958284 0  0.5192034712688036 1.509197236374236 0  0.5514545151623 1.516634039703922 0  0.5287159014415561 1.540760833069327 0  0.5610288756892929 1.548195589099698 0  0.54524459984319 1.398124619988473 0  0.538459878267193 1.572283853892174 0  0.5706498099969766 1.57977205895816 0  0.583580463193986 1.524103723357003 0  0.5480511297529332 1.603845755198645 0  0.5801806458775162 1.611374409273161 0  0.5159060176415572 1.596362816749749 0  0.5255054924914881 1.627971368507998 0  0.4933296706540536 1.620464464316728 0  0.5028842050597395 1.652055251553627 0  0.4707269246391881 1.644567885612953 0  0.4802695885647797 1.676160325444348 0  0.4481078867217955 
[...]
<PointData  Vectors="u"> 
<DataArray  type="Float64"  Name="u"  NumberOfComponents="3" format="ascii">0.0000000000000000e+00 0.0000000000000000e+00 0.0000000000000000e+00  0.0000000000000000e+00 -2.1754237966061232e-03 0.0000000000000000e+00  -1.5058893186937531e-04 -1.0674344925363634e-03 0.0000000000000000e+00  1.8141548355986398e-04 0.0000000000000000e+00 0.0000000000000000e+00  0.0000000000000000e+00 -2.0998851751203827e-03 0.0000000000000000e+00  0.0000000000000000e+00 1.0600064328123104e-06 0.0000000000000000e+00  5.7455224436287334e-04 -7.7052688910997510e-04 0.0000000000000000e+00  3.8461312058550851e-05 -2.0944943875903588e-03 0.0000000000000000e+00  7.5258762228709949e-05 -2.0829762078405393e-03 0.0000000000000000e+00  1.1268937864018348e-04 -2.0629026730809305e-03 0.0000000000000000e+00  1.4990977431418470e-04 -2.0354747589447129e-03 0.0000000000000000e+00  1.8658044923358335e-04 -2.0012733046312274e-03 0.0000000000000000e+00  2.2266508940119753e-04 -1.9608198478378879e-03 0.0000000000000000e+00  2.5785728778141866e-04 -1.9148666259141927e-03 0.0000000000000000e+00  2.9259107709127507e-04 -1.8639690015077948e-03 0.0000000000000000e+00  3.2672531519881148e-04 -1.8083870542104910e-03 0.0000000000000000e+00  3.5948625717999210e-04 -1.7496097659513146e-03 0.0000000000000000e+00  3.9148608171775412e-04 -1.6871831219718979e-03 0.0000000000000000e+00  4.2192519013731347e-04 -1.6224486295987708e-03 0.0000000000000000e+00  4.5071241634063599e-04 -1.5555067711882995e-03 0.0000000000000000e+00  4.7784911197013599e-04 -1.4866662892948899e-03 0.0000000000000000e+00  5.0307382601051437e-04 -1.4164774641604256e-03 0.0000000000000000e+00  5.2568547872022190e-04 -1.3461460052661568e-03 0.0000000000000000e+00  5.4561185294592200e-04 -1.2735852271335267e-03 0.0000000000000000e+00  5.6215177290951839e-04 -1.2008453929495532e-03 0.0000000000000000e+00  5.7440354485082485e-04 -1.1278786775504035e-03 0.0000000000000000e+00  5.8338634787968326e-04 -1.0548438134951618e-03 0.0000000000000000e+00  5.8809634934550291e-04 -9.8235101268803185e-04 0.0000000000000000e+00  5.8790911593688754e-04 -9.1066247626300995e-04 0.0000000000000000e+00  5.8367314198800701e-04 -8.3986595671228846e-04 0.0000000000000000e+00  5.6184871626568282e-04 -7.0293239884238476e-04 0.0000000000000000e+00  5.4453909660862965e-04 -6.3739308354742005e-04 0.0000000000000000e+00  5.2365282563315851e-04 -5.7422004533893721e-04 0.0000000000000000e+00  4.9974086358975205e-04 -5.1315807219523709e-04 0.0000000000000000e+00  4.7305568606935286e-04 -4.5524493936587203e-04 0.0000000000000000e+00  4.4473396472344056e-04 -4.0078240089333537e-04 0.0000000000000000e+00  4.1490357665344488e-04 -3.4986324153481841e-04 0.0000000000000000e+00  3.8337502079968878e-04 -3.0188607196765760e-04 0.0000000000000000e+00  3.5238332699629403e-04 -2.5822870718154357e-04 0.0000000000000000e+00  3.2125860490103984e-04 -2.1824028309417318e-04 0.0000000000000000e+00  2.9038480415579239e-04 -1.8209001264427461e-04 0.0000000000000000e+00  2.6045987519081407e-04 -1.4982736199198958e-04 0.0000000000000000e+00  2.3175363941267696e-04 -1.2141757529082314e-04 0.0000000000000000e+00  2.0424660072622955e-04 -9.6522794910665010e-05 0.0000000000000000e+00  1.7823435370854768e-04 -7.5065401476886472e-05 0.0000000000000000e+00  1.5357531849512779e-04 -5.6817953688797749e-05 0.0000000000000000e+00  1.3049915362648462e-04 -4.1694598987715620e-05 0.0000000000000000e+00  1.0863315355269407e-04 -2.9304004786796403e-05 0.0000000000000000e+00  8.7928235377136783e-05 -1.9489165714081914e-05 0.0000000000000000e+00  6.8988512481132249e-05 -1.1666231764814181e-05 0.0000000000000000e+00  5.0695333411662565e-05 -6.0053033073233236e-06 0.0000000000000000e+00  3.3461812632972466e-05 -2.1487110307364857e-06 0.0000000000000000e+00  1.6987236932224950e-05 -2.0671664110383523e-07 0.0000000000000000e+00  0.0000000000000000e+00 -2.1120264886311134e-03 0.0000000000000000e+00  0.0000000000000000e+00 -2.1208893458750469e-03 0.0000000000000000e+00  0.0000000000000000e+00 -2.1268294359305965e-03 0.0000000000000000e+00  0.0000000000000000e+00 -2.1313641421961326e-03 0.0000000000000000e+00  0.0000000000000000e+00 -2.1355258761892658e-03 0.0000000000000000e+00  0.0000000000000000e+00 -2.1394269380897212e-03 0.0000000000000000e+00  0.0000000000000000e+00 -2.1437287333120193e-03 0.0000000000000000e+00  0.0000000000000000e+00 -2.1485543772927522e-03 0.0000000000000000e+00  0.0000000000000000e+00 -2.1537905388067150e-03 0.0000000000000000e+00  0.0000000000000000e+00 -2.1581696169371469e-03 0.0000000000000000e+00  0.0000000000000000e+00 -2.1630453593045134e-03 0.0000000000000000e+00  0.0000000000000000e+00 -2.1675777458740205e-03 0.0000000000000000e+00  0.0000000000000000e+00 -2.1713890185904609e-03 0.0000000000000000e+00  0.0000000000000000e+00 -2.1740195514195269e-03 0.0000000000000000e+00  -2.7272812357778210e-05 -2.1721170364532002e-03 0.0000000000000000e+00  -5.3205960136742210e-05 -2.1639931186742431e-03 0.0000000000000000e+00  -7.8600394935232439e-05 -2.1502418391129395e-03 0.0000000000000000e+00  -1.0293667832818542e-04 -2.1313976611724316e-03 0.0000000000000000e+00  -1.2580596080404802e-04 -2.1077891023497668e-03 0.0000000000000000e+00  -1.4692394073571150e-04 -2.0792267412498540e-03 0.0000000000000000e+00  -1.6565781062909512e-04 -2.0475705820161231e-03 0.0000000000000000e+00  -1.8229746632762218e-04 -2.0119050937048169e-03 0.0000000000000000e+00  -1.9650525998613739e-04 -1.9732549782930375e-03 0.0000000000000000e+00  -2.0798627411314552e-04 -1.9325154074619740e-03 0.0000000000000000e+00  -2.1722389301364519e-04 -1.8895183009356796e-03 0.0000000000000000e+00  -2.2419788350735444e-04 -1.8449342477377319e-03 0.0000000000000000e+00  -2.2888742383517422e-04 -1.7999750227999085e-03 0.0000000000000000e+00  -2.3157652553223884e-04 -1.7539781634622858e-03 0.0000000000000000e+00  -2.3242224133977480e-04 -1.7078521340138514e-03 0.0000000000000000e+00  -2.3159812313124428e-04 -1.6617217358697095e-03 0.0000000000000000e+00  -2.2933447172085575e-04 -1.6158194035530563e-03 0.0000000000000000e+00  -2.2577773003194644e-04 -1.5703568442862494e-03 0.0000000000000000e+00  -2.2124250925950438e-04 -1.5256288230178034e-03 0.0000000000000000e+00  -2.1584530520636178e-04 -1.4812778200621840e-03 0.0000000000000000e+00  -2.0992225469463553e-04 -1.4378245338435849e-03 0.0000000000000000e+00  -2.0357079654520499e-04 -1.3950083898901407e-03 0.0000000000000000e+00  -1.9693040283255347e-04 -1.3527860146718535e-03 0.0000000000000000e+00  -1.9010924075801727e-04 -1.3111119743835287e-03 0.0000000000000000e+00  -1.8330443977019109e-04 -1.2699592901559142e-03 0.0000000000000000e+00  -1.7654884487639715e-04 -1.2291699746152089e-03 0.0000000000000000e+00  -1.6990379234503076e-04 -1.1886324578989427e-03 0.0000000000000000e+00  -1.6336934161006208e-04 -1.1482308146869508e-03 0.0000000000000000e+00  -1.5694421042063240e-04 -1.1078595961964300e-03 0.0000000000000000e+00  -1.1011717181728952e-04 -1.0529569005804464e-03 0.0000000000000000e+00  -6.9595919566957289e-05 -1.0385447207885608e-03 0.0000000000000000e+00  -2.9102871381144351e-05 -1.0242344776078807e-03 0.0000000000000000e+00  1.1299135229989905e-05 -1.0100362885631401e-03 0.0000000000000000e+00  5.1539799334307012e-05 -9.9594091140552924e-04 0.0000000000000000e+00  9.1564179944943880e-05 -9.8193867289156117e-04 0.0000000000000000e+00  1.3134337551491321e-04 -9.6802038122098131e-04 0.0000000000000000e+00  1.7086513594788934e-04 -9.5419358494699773e-04 0.0000000000000000e+00  2.1009143288786759e-04 -9.4050071677939857e-04 0.0000000000000000e+00  2.4898683489608519e-04 -9.2697573337416372e-04 0.0000000000000000e+00  2.8760342687274743e-04 -9.1371431942417823e-04 0.0000000000000000e+00  3.2578442518023306e-04 -9.0076380045633789e-04 0.0000000000000000e+00  3.6337071692581056e-04 -8.8822569002621008e-04 0.0000000000000000e+00  4.0039034871800812e-04 -8.7620024902926460e-04 0.0000000000000000e+00  4.3680093593250418e-04 -8.6481500765716690e-04 0.0000000000000000e+00  4.7211471518628269e-04 -8.5408997955122555e-04 0.0000000000000000e+00  5.0635345645860406e-04 -8.4427664419022561e-04 0.0000000000000000e+00  5.3910909191678047e-04 -8.3533788687800486e-04 0.0000000000000000e+00  5.7001872358703593e-04 -8.2732605760680374e-04 0.0000000000000000e+00  5.9896719624907271e-04 -8.2031826333368093e-04 0.0000000000000000e+00  6.2587839709918802e-04 -8.1419975044086021e-04 0.0000000000000000e+00  6.4983282675724170e-04 -8.0896171871336689e-04 0.0000000000000000e+00  6.7100078086774595e-04 -8.0506438764690641e-04 0.0000000000000000e+00  6.8881301569010593e-04 -8.0127226289462004e-04 0.0000000000000000e+00  7.0304168530914272e-04 -7.9811923299348293e-04 0.0000000000000000e+00  7.1355975113495578e-04 -7.9532534755227943e-04 0.0000000000000000e+00  7.2017111532166013e-04 -7.9258101724716127e-04 0.0000000000000000e+00  7.2285529531328772e-04 -7.8960855625171984e-04 0.0000000000000000e+00  7.2164031420694351e-04 -7.8614275026299028e-04 0.0000000000000000e+00  7.1634984966117076e-04 -7.8202409103832464e-04 0.0000000000000000e+00  7.0724450251123683e-04 -7.7685755485582800e-04 0.0000000000000000e+00  6.9471193068740668e-04 -7.7029658378430146e-04 0.0000000000000000e+00  6.7879771862393366e-04 -7.6197197275613981e-04 0.0000000000000000e+00  6.5976127161458361e-04 -7.5261615463868641e-04 0.0000000000000000e+00  6.3833145915520736e-04 -7.4111250908399256e-04 0.0000000000000000e+00  6.1481255259227387e-04 -7.2743074124134580e-04 0.0000000000000000e+00  5.8932265097070885e-04 -7.1178258408179269e-04 0.0000000000000000e+00  5.6279954836087516e-04 -6.9400508106387624e-04 0.0000000000000000e+00  5.3538911382335237e-04 -6.7426860109984536e-04 0.0000000000000000e+00  5.0734293984902666e-04 -6.5257088009198214e-04 0.0000000000000000e+00  4.7924519764496165e-04 -6.2896120285914109e-04 0.0000000000000000e+00  4.5146135590475625e-04 -6.0358828414180195e-04 0.0000000000000000e+00  4.2430104315947255e-04 -5.7662754219726399e-04 0.0000000000000000e+00  3.9781711512772221e-04 -5.4822323538750433e-04 0.0000000000000000e+00  3.7248411567229067e-04 -5.1854620539633594e-04 0.0000000000000000e+00  3.4831462773638573e-04 -4.8763070362030906e-04 0.0000000000000000e+00  3.2564508090353745e-04 -4.5576773630140005e-04 0.0000000000000000e+00  3.0451440036378637e-04 -4.2308705425609890e-04 0.0000000000000000e+00  2.8491316630904127e-04 -3.8965066903571199e-04 0.0000000000000000e+00  2.6682995535657770e-04 -3.5562320090746282e-04 0.0000000000000000e+00  2.5061755960750147e-04 -3.2118465082082732e-04 0.0000000000000000e+00  2.3598209054728460e-04 -2.8604308666696818e-04 0.0000000000000000e+00  2.2317051242155351e-04 -2.5090753526171009e-04 0.0000000000000000e+00  2.1215497303559650e-04 -2.1545821791412267e-04 0.0000000000000000e+00  2.0273345952975637e-04 -1.7976007735882697e-04 0.0000000000000000e+00  1.9505236684932167e-04 -1.4395919082558180e-04 0.0000000000000000e+00  1.8914186664548892e-04 -1.0807996926930699e-04 0.0000000000000000e+00  1.8492163549414082e-04 -7.2070842632815065e-05 0.0000000000000000e+00  1.8243882434578618e-04 -3.6149264513729261e-05 0.0000000000000000e+00  1.6614606262032388e-04 0.0000000000000000e+00 0.0000000000000000e+00  1.5137196782401261e-04 0.0000000000000000e+00 0.0000000000000000e+00  1.3725015676536735e-04 0.0000000000000000e+00 0.0000000000000000e+00  1.2377366652492738e-04 0.0000000000000000e+00 0.0000000000000000e+00  1.1093899261012066e-04 0.0000000000000000e+00 0.0000000000000000e+00  9.8514346972659601e-05 0.0000000000000000e+00 0.0000000000000000e+00  8.6885995090320222e-05 0.0000000000000000e+00 0.0000000000000000e+00  7.5669718289380432e-05 0.0000000000000000e+00 0.0000000000000000e+00  6.5024394771252898e-05 0.0000000000000000e+00 0.0000000000000000e+00  5.4967189855598830e-05 0.0000000000000000e+00 0.0000000000000000e+00  4.5513831497825349e-05 0.0000000000000000e+00 0.0000000000000000e+00  3.6725364630039383e-05 0.0000000000000000e+00 0.0000000000000000e+00  2.8629539717719291e-05 0.0000000000000000e+00 0.0000000000000000e+00  2.1083601624032359e-05 0.0000000000000000e+00 0.0000000000000000e+00  1.4276021046360962e-05 0.0000000000000000e+00 0.0000000000000000e+00  8.3891560246196315e-06 0.0000000000000000e+00 0.0000000000000000e+00  3.2853452874866227e-06 0.0000000000000000e+00 0.0000000000000000e+00  -1.0281447843889143e-06 0.0000000000000000e+00 0.0000000000000000e+00  -4.5100425928373212e-06 0.0000000000000000e+00 0.0000000000000000e+00  -7.0942080834398578e-06 0.0000000000000000e+00 0.0000000000000000e+00  -8.9612532631739734e-06 0.0000000000000000e+00 0.0000000000000000e+00  -1.0191265243926686e-05 0.0000000000000000e+00 0.0000000000000000e+00  -1.0644725370064690e-05 0.0000000000000000e+00 0.0000000000000000e+00  -1.0355741235496237e-05 0.0000000000000000e+00 0.0000000000000000e+00  -9.5183647291282599e-06 0.0000000000000000e+00 0.0000000000000000e+00  -8.2208703638448634e-06 0.0000000000000000e+00 0.0000000000000000e+00  -6.5246673560078352e-06 0.0000000000000000e+00 0.0000000000000000e+00  -4.5301250731846039e-06 0.0000000000000000e+00 0.0000000000000000e+00  -2.3137689088100071e-06 0.0000000000000000e+00 0.0000000000000000e+00  0.0000000000000000e+00 1.8199814111152587e-06 0.0000000000000000e+00  0.0000000000000000e+00 3.6185737121572389e-06 0.0000000000000000e+00  0.0000000000000000e+00 5.3869785360533600e-06 0.0000000000000000e+00  0.0000000000000000e+00 7.1133968470740015e-06 0.0000000000000000e+00  0.0000000000000000e+00 8.7946794326443293e-06 0.0000000000000000e+00  0.0000000000000000e+00 1.0367446481046378e-05 0.0000000000000000e+00  0.0000000000000000e+00 1.1781826654673511e-05 0.0000000000000000e+00  0.0000000000000000e+00 1.2965046262622570e-05 0.0000000000000000e+00  0.0000000000000000e+00 1.3864116201844957e-05 0.0000000000000000e+00  0.0000000000000000e+00 1.4348767898788838e-05 0.0000000000000000e+00  0.0000000000000000e+00 1.4156483099275835e-05 0.0000000000000000e+00  0.0000000000000000e+00 1.3045017552025640e-05 0.0000000000000000e+00  0.0000000000000000e+00 1.0795774158614297e-05 0.0000000000000000e+00  0.0000000000000000e+00 6.7331280157652702e-06 0.0000000000000000e+00  2.8273990029625807e-04 -3.9110175091774431e-04 0.0000000000000000e+00  -1.8419072603983495e-04 -1.5342446532560219e-03 0.0000000000000000e+00  2.2255023362878070e-04 -1.5524083377564955e-04 0.0000000000000000e+00  4.0972242251639481e-04 -1.5434918925079299e-03 0.0000000000000000e+00  4.1312869498795582e-05 -1.7107161693268472e-05 0.0000000000000000e+00  3.0184515441467860e-04 -9.3916423328592620e-04 0.0000000000000000e+00  -1.9074864374981466e-04 -1.7667516460591060e-03 0.0000000000000000e+00  4.0165687177016085e-04 -5.4267041688234449e-04 0.0000000000000000e+00  1.1681981252850748e-05 -1.1196800455009641e-05 0.0000000000000000e+00  4.4765717733985142e-04 -8.9311035057833277e-04 0.0000000000000000e+00  2.6855123382922097e-04 -1.8138872437521972e-03 0.0000000000000000e+00  3.5550124536641098e-04 -3.1081748802120907e-04 0.0000000000000000e+00  5.0418904033887075e-04 -1.3274400904120926e-03 0.0000000000000000e+00  1.4413518770919911e-04 -7.3902268374860067e-05 0.0000000000000000e+00  5.8104212309327650e-04 -8.4764355749178020e-04 0.0000000000000000e+00  -5.9638401583268469e-06 -6.5384590264347307e-06 0.0000000000000000e+00  -1.6536124956756593e-04 -1.9437888901256545e-03 0.0000000000000000e+00  5.1309500402062051e-04 -6.4120627150284816e-04 0.0000000000000000e+00  5.9314119960393174e-04 -1.0646978772161301e-03 0.0000000000000000e+00  8.5696402377438390e-05 -2.4391953532110625e-05 0.0000000000000000e+00  4.6093368961933550e-04 -4.6375671536085688e-04 0.0000000000000000e+00  1.6789598124096239e-04 -1.9723553288204824e-03 0.0000000000000000e+00  5.4939740338631564e-04 -6.2827661879916446e-04 0.0000000000000000e+00  6.0902616215738369e-04 -8.7209328663050948e-04 0.0000000000000000e+00  6.7603558869659284e-04 -8.1948373228564399e-04 0.0000000000000000e+00  6.2066505871702696e-04 -7.1419716342170517e-04 0.0000000000000000e+00  1.4583420234169747e-04 -9.9521626012194324e-04 0.0000000000000000e+00  2.1752625611963855e-04 -2.6170200861728749e-04 0.0000000000000000e+00  3.9077813721208030e-07 1.1894214880113365e-05 0.0000000000000000e+00  7.1017846795703716e-04 -7.7328632671511729e-04 0.0000000000000000e+00  -1.3451661539938240e-06 -2.1428166188335496e-03 0.0000000000000000e+00  8.1343314268388328e-05 -2.0849903931178362e-05 0.0000000000000000e+00  -1.6633560613097770e-04 -1.3592719751539929e-03 0.0000000000000000e+00  -1.0343653804872316e-05 -1.4561057863203573e-06 0.0000000000000000e+00  7.2031405782947006e-04 -7.9379635744722865e-04 0.0000000000000000e+00  -1.3146923165669410e-04 -2.0601700323197680e-03 0.0000000000000000e+00  3.5351577238084117e-06 1.3686860104046854e-05 0.0000000000000000e+00  5.0117686260920356e-06 -2.1306904153727455e-03 0.0000000000000000e+00  1.1790871644114801e-04 -2.5099242639851806e-05 0.0000000000000000e+00  2.6074293259891602e-05 -1.0377334370889307e-03 0.0000000000000000e+00  -8.1356579636104270e-06 -2.1584835690290150e-03 0.0000000000000000e+00  -1.1380377808770395e-06 7.7469115539395918e-06 0.0000000000000000e+00  -1.4454459461776351e-04 -1.2368608700962613e-03 0.0000000000000000e+00  1.8585977836500090e-04 -1.5560843857006051e-04 0.0000000000000000e+00  2.8425474375424277e-04 -2.2623457273481792e-04 0.0000000000000000e+00  3.3893237217110894e-04 -1.6817822052587151e-03 0.0000000000000000e+00  5.0662479801162705e-05 -5.4112408374158870e-06 0.0000000000000000e+00  1.0457860711048758e-04 -2.0526488095393130e-03 0.0000000000000000e+00  5.5819092266706945e-04 -1.1973258353349982e-03 0.0000000000000000e+00  5.9040694126624379e-04 -7.4731398439844589e-04 0.0000000000000000e+00  -7.9414239769879036e-05 -2.1381658049748607e-03 0.0000000000000000e+00  -7.3100739245989120e-06 6.3832448512776622e-07 0.0000000000000000e+00  6.8041561151089170e-04 -7.5127913775058989e-04 0.0000000000000000e+00  5.6863282990718324e-04 -6.8136683562675668e-04 0.0000000000000000e+00  7.0717840720092818e-04 -8.0563120222946604e-04 0.0000000000000000e+00  -1.8841207525112317e-04 -1.8614404723402294e-03 0.0000000000000000e+00  6.3604410143902309e-04 -8.3242617270420601e-04 0.0000000000000000e+00  1.3853149433914417e-06 -8.1448910076675854e-06 0.0000000000000000e+00  -9.3867347553878033e-06 -3.4838903272158375e-06 0.0000000000000000e+00  -1.9541589065289180e-04 -1.6744986327827125e-03 0.0000000000000000e+00  3.4836681305174991e-04 -4.8321730673766861e-04 0.0000000000000000e+00  4.5567748513115539e-04 -5.9396415155662889e-04 0.0000000000000000e+00  2.4462742311792815e-04 -3.2326070567650895e-04 0.0000000000000000e+00  5.1959490270704178e-04 -8.6692217306051644e-04 0.0000000000000000e+00  3.7571782942187360e-04 -9.1286462857594595e-04 0.0000000000000000e+00  6.0580991532725343e-05 -1.8148636127102613e-05 0.0000000000000000e+00  2.6332888328586696e-05 -1.3558594907003657e-05 0.0000000000000000e+00  2.2463922951224873e-04 -9.6544872486636945e-04 0.0000000000000000e+00  -1.7440183465627235e-04 -1.4472111167216774e-03 0.0000000000000000e+00  1.4512554827596816e-04 -2.4969235022123193e-05 0.0000000000000000e+00  -5.4790364216608183e-05 -1.0663453412898022e-03 0.0000000000000000e+00  7.1312249233515359e-06 1.1484307163885768e-05 0.0000000000000000e+00  1.1933662083610407e-05 -2.1212191813347989e-03 0.0000000000000000e+00  -1.3558243149651563e-05 -2.1674077766043768e-03 0.0000000000000000e+00  -1.7459708973922860e-06 4.5903742544888652e-06 0.0000000000000000e+00  -1.2972269428192162e-04 -1.1518871035405720e-03 0.0000000000000000e+00  1.7381875379017005e-04 -8.6634254455063829e-05 0.0000000000000000e+00  2.0045733418449947e-05 5.0038851142271620e-06 0.0000000000000000e+00  4.3103674591458944e-05 -2.1009074273646883e-03 0.0000000000000000e+00  -3.3770496553611004e-05 -2.1672737696086424e-03 0.0000000000000000e+00  -3.4984691203418937e-06 1.2846004062316935e-06 0.0000000000000000e+00  3.7509328051711676e-04 -1.6125621765993347e-03 0.0000000000000000e+00  3.67